LAMMPS (3 Mar 2020)
OMP_NUM_THREADS environment is not set. Defaulting to 1 thread. (../comm.cpp:94)
  using 1 OpenMP thread(s) per MPI task
dimension 3
units metal
read_data structure.lammps
  orthogonal box = (0 0 0) to (8 8 8)
  1 by 1 by 1 MPI processor grid
  reading atoms ...
  32 atoms
  read_data CPU = 0.000827074 secs

pair_style eam/alloy
pair_coeff * * Zope-Ti-Al-2003.eam.alloy Ti Al

# Define minimization parameters
variable etol equal 0.0
variable ftol equal 1.0e-10
variable maxiter equal 10000
variable maxeval equal 10000

fix 3 all box/relax  aniso 0.0
minimize ${etol} ${ftol} ${maxiter} ${maxeval}
minimize 0 ${ftol} ${maxiter} ${maxeval}
minimize 0 1e-10 ${maxiter} ${maxeval}
minimize 0 1e-10 10000 ${maxeval}
minimize 0 1e-10 10000 10000
WARNING: Using 'neigh_modify every 1 delay 0 check yes' setting during minimization (../min.cpp:190)
Neighbor list info ...
  update every 1 steps, delay 0 steps, check yes
  max neighbors/atom: 2000, page size: 100000
  master list distance cutoff = 8.72488
  ghost atom cutoff = 8.72488
  binsize = 4.36244, bins = 2 2 2
  1 neighbor lists, perpetual/occasional/extra = 1 0 0
  (1) pair eam/alloy, perpetual
      attributes: half, newton on
      pair build: half/bin/atomonly/newton
      stencil: half/bin/3d/newton
      bin: standard
Per MPI rank memory allocation (min/avg/max) = 4.37 | 4.37 | 4.37 Mbytes
Step Temp E_pair E_mol TotEng Press Volume 
       0            0   -127.07775            0   -127.07775    69474.166          512 
     456            0   -129.15041            0   -129.15041 -8.5079096e-08    531.59576 
Loop time of 0.109645 on 1 procs for 456 steps with 32 atoms

98.5% CPU use with 1 MPI tasks x 1 OpenMP threads

Minimization stats:
  Stopping criterion = force tolerance
  Energy initial, next-to-last, final = 
        -127.077752772     -129.150405759     -129.150405759
  Force two-norm initial, final = 39.1723 7.99882e-11
  Force max component initial, final = 22.5218 3.89655e-11
  Final line search alpha, max atom move = 1 3.89655e-11
  Iterations, force evaluations = 456 546

MPI task timing breakdown:
Section |  min time  |  avg time  |  max time  |%varavg| %total
---------------------------------------------------------------
Pair    | 0.090344   | 0.090344   | 0.090344   |   0.0 | 82.40
Neigh   | 0          | 0          | 0          |   0.0 |  0.00
Comm    | 0.0053258  | 0.0053258  | 0.0053258  |   0.0 |  4.86
Output  | 0          | 0          | 0          |   0.0 |  0.00
Modify  | 0          | 0          | 0          |   0.0 |  0.00
Other   |            | 0.01397    |            |       | 12.75

Nlocal:    32 ave 32 max 32 min
Histogram: 1 0 0 0 0 0 0 0 0 0
Nghost:    1067 ave 1067 max 1067 min
Histogram: 1 0 0 0 0 0 0 0 0 0
Neighs:    2816 ave 2816 max 2816 min
Histogram: 1 0 0 0 0 0 0 0 0 0

Total # of neighbors = 2816
Ave neighs/atom = 88
Neighbor list builds = 0
Dangerous builds = 0

write_dump all custom dump.atom id type x y z modify format line "%d %d %10.15g %10.15g %10.15g"
Total wall time: 0:00:00
