# converted from poscar to lammps

4 atoms
2 atom types

0.0 4.000000000000000 xlo xhi
0.0 4.000000000000000 ylo yhi
0.0 4.000000000000000 zlo zhi

0.000000000000000 0.000000000000000 0.000000000000000 xy xz yz

Atoms

1 1 0.000000000000000 0.000000000000000 0.000000000000000
2 2 0.000000000000000 2.000000000000000 2.000000000000000
3 2 2.000000000000000 0.000000000000000 2.000000000000000
4 2 2.000000000000000 2.000000000000000 0.000000000000000
