ITEM: TIMESTEP
100
ITEM: NUMBER OF ATOMS
32
ITEM: BOX BOUNDS pp pp pp
0.0000000000000000e+00 8.0000000000000000e+00
0.0000000000000000e+00 8.0000000000000000e+00
0.0000000000000000e+00 8.0000000000000000e+00
ITEM: ATOMS id type x y z 
1 1 0.0200720248199761 8.03741015297065 7.96896536379999 
2 1 8.02827139361071 -0.0171189775191887 3.93783043033552 
3 1 7.99804006579909 3.96884510426176 8.01702557250884 
4 1 7.99072472716246 3.97258839347065 4.0926374509985 
5 1 4.0553603073698 0.03205706179703 -0.0880140748866408 
6 1 3.92505957921979 7.98168194512617 4.02967617885697 
7 1 3.96879439596811 3.98431301854142 -0.0594852080058263 
8 1 3.99862133057767 3.99628975298424 3.97394708273519 
9 2 0.0632413531154676 2.02534432606849 2.05574109263975 
10 2 7.94523674869417 1.99922867810523 6.01740048649984 
11 2 8.00240642003489 5.94954653388054 1.95531593540141 
12 2 -0.041428368053805 6.03189173637324 6.08307051251731 
13 2 3.93684377775824 2.04214101678474 2.00913646882247 
14 2 4.06412150486225 2.01875579005281 6.03925671928195 
15 2 4.00845772150388 5.92304388146393 2.05566887065772 
16 2 3.99996531959046 6.05237279920432 6.00653168787574 
17 2 2.03615182513357 -0.057313627290348 1.9705825986223 
18 2 1.95326333230406 7.95679719589061 5.99557527882796 
19 2 2.01441873387075 4.00944372808526 2.03203605375933 
20 2 1.90502979402929 4.0469532099393 6.07068730631392 
21 2 5.95602217993724 7.98503033002834 2.06957965293959 
22 2 6.02431178342345 0.0730331762529116 6.01928139518901 
23 2 5.92428042111738 4.00408206034965 2.09169648823244 
24 2 6.0492028063715 3.92673490570567 6.10140231674169 
25 2 2.0231892757226 1.92250923585494 -0.0664564519930148 
26 2 1.97080118499139 1.97627313056487 3.95373262355542 
27 2 1.95701730083875 6.04528668358778 -0.0195853484407421 
28 2 2.01213273887535 5.97633889142409 3.96302711098052 
29 2 5.93853502265666 2.07196098819045 7.94265871565123 
30 2 6.02580617705386 1.97666830206147 3.98943441813506 
31 2 6.06007077461866 5.94492316334103 8.07446930216089 
32 2 5.98700375055729 6.00674572456349 3.95844597211893 
