ITEM: TIMESTEP
100
ITEM: NUMBER OF ATOMS
32
ITEM: BOX BOUNDS pp pp pp
0.0000000000000000e+00 8.0000000000000000e+00
0.0000000000000000e+00 8.0000000000000000e+00
0.0000000000000000e+00 8.0000000000000000e+00
ITEM: ATOMS id type x y z 
1 1 0.0196705658538476 8.03951985250817 7.97404944354321 
2 1 8.03111875271276 -0.0216502270767206 3.93830295081547 
3 1 7.99991414691101 3.96617806303541 8.02554238778477 
4 1 7.9887118058444 3.97639614964529 4.09240039158478 
5 1 4.05519281699205 0.0279630919242665 -0.0817922342560128 
6 1 3.92241319994231 7.9826120999866 4.03177037264641 
7 1 3.96396386467241 3.9881430325895 -0.054277097576136 
8 1 4.00084777225448 3.99828691541368 3.97429124945619 
9 2 0.0752008180403035 2.02195729175961 2.04842472640828 
10 2 7.95251429348865 2.00473732584724 6.01335986007307 
11 2 7.99038856251637 5.94262455592044 1.96083979125354 
12 2 -0.0396966659554588 6.02943078026067 6.09133313398898 
13 2 3.9382957563789 2.05094821833074 2.00737933908608 
14 2 4.05476732907338 2.0199711911911 6.03866992963426 
15 2 4.0133115086305 5.91477202617542 2.05445721139726 
16 2 4.00599377909803 6.04711051190314 6.00409120829016 
17 2 2.0389487120683 -0.0392532972387879 1.97028358774783 
18 2 1.95632692311631 7.94277092393476 5.98958259507763 
19 2 2.02326702266498 4.01505382987788 2.0293222862409 
20 2 1.90281500612417 4.04451788178804 6.05992572356338 
21 2 5.95204169339992 7.98000706440564 2.07034373251008 
22 2 6.02478960151345 0.0627857454538329 6.01670638176611 
23 2 5.92518749832749 3.99770106626333 2.09110228088449 
24 2 6.0471838448122 3.93972574687797 6.10139390417287 
25 2 2.02729295723348 1.92004578432208 -0.0715295531080068 
26 2 1.96627096387148 1.96539843501696 3.94967770878806 
27 2 1.95032938756477 6.05334645855276 -0.0218944341758686 
28 2 2.01207264294101 5.98576531587463 3.98516284704863 
29 2 5.93989399093591 2.06524793125008 7.95037185632011 
30 2 6.02068418440526 1.97720237975427 3.97445228430523 
31 2 6.05334484797865 5.95148296900605 8.05918404804396 
32 2 5.99037767172839 6.0119882264116 3.9468827272487 
