ITEM: TIMESTEP
100
ITEM: NUMBER OF ATOMS
32
ITEM: BOX BOUNDS pp pp pp
0.0000000000000000e+00 8.0000000000000000e+00
0.0000000000000000e+00 8.0000000000000000e+00
0.0000000000000000e+00 8.0000000000000000e+00
ITEM: ATOMS id type x y z 
1 1   0.005698    7.90325   7.975364 
2 1   7.962333   0.031776   4.087014 
3 1   7.987993   4.053572   7.916418 
4 1   7.972553   3.990096   3.904352 
5 1   3.901632   0.009469   0.015298 
6 1   4.061435   7.980741   3.923483 
7 1   4.075226   3.974756   0.060859 
8 1   3.997434   3.997462   3.900065 
9 2   0.002131   2.089909   2.043724 
10 2    7.93588   2.054631   6.053889 
11 2   7.986174   5.996277    1.90103 
12 2   0.073084   5.950515    5.95299 
13 2   4.057353   2.078078   1.975213 
14 2   4.049787   2.018112   6.084813 
15 2   3.971569   5.919147   2.051521 
16 2   3.945378   6.072591   6.041797 
17 2   1.964716   0.069527   2.062618 
18 2   1.928378   7.984901   6.068134 
19 2   1.990663   4.042357   2.090104 
20 2   1.974315    3.92149    6.05636 
21 2   6.008068   7.938413   2.078371 
22 2   5.953855   0.062646   6.062819 
23 2   5.900438   4.009349    1.99986 
24 2   6.040758   3.924354   6.051151 
25 2    1.93648   1.932966   0.038363 
26 2   2.043398   1.921099   3.956512 
27 2   1.983471   5.951049   0.085619 
28 2   2.010997    6.09591   4.026083 
29 2   5.955844   1.984438   7.911637 
30 2   6.075395   1.996245   4.065586 
31 2   6.080717   5.987091   7.942396 
32 2   5.983861   5.933218   3.927338 
