ITEM: TIMESTEP
100
ITEM: NUMBER OF ATOMS
32
ITEM: BOX BOUNDS pp pp pp
0.0000000000000000e+00 8.0000000000000000e+00
0.0000000000000000e+00 8.0000000000000000e+00
0.0000000000000000e+00 8.0000000000000000e+00
ITEM: ATOMS id type x y z 
5 1 4.06067770140213 0.0216990107378097 -0.0842050502051301 
8 1 4.0041192221828 3.99253301975665 3.97418170713129 
9 2 0.0753674371700024 2.02590353656062 2.0511748836262 
17 2 2.03894181986886 -0.0422522433476008 1.96729732577271 
25 2 2.02103221601873 1.92350253427108 -0.0730495469382622 
26 2 1.96864337155781 1.962084907972 3.95698284078298 
4 1 7.98538732439029 3.98441734405612 4.09669583459148 
7 1 3.95565070350858 3.99537962070534 -0.061794733124741 
13 2 3.93584053431274 2.05509076828179 2.00305950657531 
15 2 4.01116535883234 5.90886988708131 2.05526747752975 
19 2 2.02074006735243 4.00975684373991 2.03419164990661 
27 2 1.95031885480276 6.04853845892221 -0.0245792141983714 
6 1 3.91538917727303 7.98569710695949 4.03176436254779 
11 2 7.99661437784979 5.94234506452128 1.95867305587301 
21 2 5.95774057246013 7.98435187897479 2.07142501318266 
23 2 5.9239661466323 3.99713360613646 2.08668505500513 
32 2 5.98816033068188 6.00334682968237 3.95684402579076 
20 2 1.90287599238979 4.04479409475394 6.0613589747837 
2 1 8.0359584119297 -0.0291205584604204 3.9355206529688 
10 2 7.95226738988999 2.00816842866437 6.01979730074747 
14 2 4.05634928879615 2.01863752314769 6.0408545645868 
22 2 6.02522100445042 0.0684141525884647 6.01646818950617 
24 2 6.05070506052631 3.93377802490429 6.10406369869655 
29 2 5.940708431344 2.06418122068192 7.94538752822284 
30 2 6.02587865584779 1.98322835650924 3.98530517456929 
1 1 0.0171466266573207 8.04296530102645 7.96708476973936 
12 2 -0.0388964959830332 6.02163067268958 6.08982556451315 
16 2 3.99996367134949 6.04863203945043 6.01035261690732 
18 2 1.95363964403457 7.95006058554787 5.99011095312733 
28 2 2.00680395122446 5.99244639277047 3.9835385865407 
3 1 8.0066832770594 3.96143474831199 8.02275404803029 
31 2 6.0590107130296 5.95703094634382 8.06093893613568 
