ITEM: TIMESTEP
100
ITEM: NUMBER OF ATOMS
32
ITEM: BOX BOUNDS pp pp pp
0.0000000000000000e+00 8.0000000000000000e+00
0.0000000000000000e+00 8.0000000000000000e+00
0.0000000000000000e+00 8.0000000000000000e+00
ITEM: ATOMS id type x y z 
1 1 0.0131273959746073 8.03870017206533 7.96937210434568 
2 1 8.03359592088809 -0.0222361653151968 3.93827782719289 
3 1 8.00499398798798 3.96478139453932 8.01349772084257 
4 1 7.98856733507453 3.97795142418213 4.09533630386236 
5 1 4.05831100602841 0.0266951472049637 -0.0926172432031546 
6 1 3.92079301481777 7.9822994324769 4.03137395896792 
7 1 3.96267579332395 3.99001900159899 -0.0664726211138514 
8 1 4.00465356698345 3.9963939438526 3.9753164226815 
9 2 0.0650076595772035 2.02133821842731 2.05995997454744 
10 2 7.94849604754993 1.99456746172128 6.02183269395232 
11 2 8.00115275051735 5.94765346037726 1.95960996598025 
12 2 -0.0404779583468308 6.02079274072285 6.09186885286125 
13 2 3.93096685586038 2.03934699670211 2.01158081072915 
14 2 4.05974302669524 2.01466170186721 6.04334280889162 
15 2 4.00698024418602 5.92132259767511 2.06145864653842 
16 2 4.00020198009488 6.04402761262962 6.01192555676559 
17 2 2.03720903030774 -0.0546133393048204 1.9663587753119 
18 2 1.96108055598211 7.95962940930196 5.99328585339095 
19 2 2.0147951436829 4.00594788172503 2.03247270988871 
20 2 1.90966741302418 4.04591002816052 6.07056867581031 
21 2 5.963006787162 7.98786689403243 2.0601254506643 
22 2 6.02752809432764 0.0734049200624504 6.01263801454133 
23 2 5.92985033890669 3.99978528458295 2.08727730738322 
24 2 6.05492610310655 3.92805412113405 6.09760368171909 
25 2 2.01954678939643 1.93119120099586 -0.0679925758577303 
26 2 1.96639596030263 1.98474919605807 3.95948786445741 
27 2 1.95051949305534 6.0502242741308 -0.0256079632953035 
28 2 2.00778922759897 5.97766510411322 3.96707058337259 
29 2 5.93327007077633 2.07748764652353 7.94461759201369 
30 2 6.02622871490485 1.97787952056463 3.99307722823758 
31 2 6.05597002938229 5.94869166264064 8.06927652159239 
32 2 5.98307864679527 6.01280198013852 3.96193170753782 
