ITEM: TIMESTEP
100
ITEM: NUMBER OF ATOMS
32
ITEM: BOX BOUNDS pp pp pp
0.0000000000000000e+00 8.0000000000000000e+00
0.0000000000000000e+00 8.0000000000000000e+00
0.0000000000000000e+00 8.0000000000000000e+00
ITEM: ATOMS id type x y z 
5 1 4.04035876049571 0.016712216555725 -0.0527043696884014 
8 1 4.023193264723 3.96581938778392 3.94656038088329 
9 2 0.0617631675961534 2.00080154666493 2.04241985758841 
17 2 2.02929133344348 -0.0408719051048405 1.99170727467825 
25 2 2.02022690733985 1.92302628701014 -0.0784456156748234 
26 2 1.97449103727279 1.98143441562235 3.96366529916647 
4 1 7.96674676043425 3.97790743238106 4.11418554748674 
7 1 3.94327755766015 3.99449021927892 -0.0340720340267206 
13 2 3.95241065218517 2.03242655140289 2.00848063429869 
15 2 3.98514608795591 5.93494546990804 2.07633855293181 
19 2 1.99575372901346 4.04170473347332 2.03858722247084 
27 2 1.98915473631264 6.04122969839499 0.0184169101630716 
6 1 3.94459975856907 8.01387510198354 4.01045563868899 
11 2 8.00587571425562 5.97814278789749 1.97277900684607 
21 2 5.96799938507461 7.99275090690306 2.04782442172899 
23 2 5.92881376759145 3.9857008546433 2.07820395150872 
32 2 5.9764856384629 5.9926135021154 3.95174349510117 
20 2 1.92592521645934 4.01700899137679 6.05089783035588 
2 1 8.00285581371327 -0.0168696014542668 3.97353814800401 
10 2 7.94949376969354 1.98199575595728 6.0174437120797 
14 2 4.05638813999693 1.99945142528296 6.02759136602547 
22 2 5.99780676408925 0.0685354084444181 6.03628803654693 
24 2 6.03610838851287 3.9246776279769 6.09649433173727 
29 2 5.93548438036726 2.06614460751417 7.94144898677886 
30 2 6.03693502871305 1.98405347053188 3.99741141001658 
1 1 0.0379231619141112 8.01399759813926 7.93415469904179 
12 2 -0.0436194606614047 6.04310650342806 6.04425582697663 
16 2 4.01654765347164 6.06268106134411 5.98715262358921 
18 2 1.98273248641621 7.95001409680987 5.96405073471828 
28 2 2.01929336053616 5.97472143165359 3.98663253848905 
3 1 8.0124300539008 4.00296400176583 8.01062003909557 
31 2 6.03963560100383 5.94872806778153 8.05378584208775 
