LAMMPS (3 Mar 2020)
OMP_NUM_THREADS environment is not set. Defaulting to 1 thread. (../comm.cpp:94)
  using 1 OpenMP thread(s) per MPI task
dimension 3
units metal
read_data structure.lammps
  orthogonal box = (0 0 0) to (8 8 8)
  1 by 1 by 1 MPI processor grid
  reading atoms ...
  32 atoms
  read_data CPU = 0.000226974 secs

pair_style  mlip_gtinv
pair_coeff * * mlp.lammps Ti Al

fix 3 all box/relax  aniso 0.0
run 100
Neighbor list info ...
  update every 1 steps, delay 10 steps, check yes
  max neighbors/atom: 2000, page size: 100000
  master list distance cutoff = 10
  ghost atom cutoff = 10
  binsize = 5, bins = 2 2 2
  1 neighbor lists, perpetual/occasional/extra = 1 0 0
  (1) pair mlip_gtinv, perpetual
      attributes: half, newton on
      pair build: half/bin/atomonly/newton
      stencil: half/bin/3d/newton
      bin: standard
Per MPI rank memory allocation (min/avg/max) = 3.005 | 3.005 | 3.005 Mbytes
Step Temp E_pair E_mol TotEng Press Volume 
       0            0   -135.32217            0   -135.32217   -7273.3702          512 
     100            0   -135.32217            0   -135.32217   -7273.3702          512 
Loop time of 11.5328 on 1 procs for 100 steps with 32 atoms

Performance: 0.749 ns/day, 32.036 hours/ns, 8.671 timesteps/s
99.9% CPU use with 1 MPI tasks x 1 OpenMP threads

MPI task timing breakdown:
Section |  min time  |  avg time  |  max time  |%varavg| %total
---------------------------------------------------------------
Pair    | 11.532     | 11.532     | 11.532     |   0.0 | 99.99
Neigh   | 0          | 0          | 0          |   0.0 |  0.00
Comm    | 0.00073504 | 0.00073504 | 0.00073504 |   0.0 |  0.01
Output  | 2.0027e-05 | 2.0027e-05 | 2.0027e-05 |   0.0 |  0.00
Modify  | 6.0797e-05 | 6.0797e-05 | 6.0797e-05 |   0.0 |  0.00
Other   |            | 0.000303   |            |       |  0.00

Nlocal:    32 ave 32 max 32 min
Histogram: 1 0 0 0 0 0 0 0 0 0
Nghost:    1357 ave 1357 max 1357 min
Histogram: 1 0 0 0 0 0 0 0 0 0
Neighs:    3968 ave 3968 max 3968 min
Histogram: 1 0 0 0 0 0 0 0 0 0

Total # of neighbors = 3968
Ave neighs/atom = 124
Neighbor list builds = 0
Dangerous builds = 0

write_dump all custom dump.atom id type x y z modify format line "%d %d %10.15g %10.15g %10.15g"
Total wall time: 0:00:11
