LAMMPS (3 Mar 2020)
OMP_NUM_THREADS environment is not set. Defaulting to 1 thread. (../comm.cpp:94)
  using 1 OpenMP thread(s) per MPI task
dimension 3
units metal
read_data structure.lammps
  orthogonal box = (0 0 0) to (8 8 8)
  1 by 1 by 1 MPI processor grid
  reading atoms ...
  32 atoms
  read_data CPU = 0.000855826 secs

pair_style  mlip_pair
pair_coeff * * pair-17.mlip Ti Al

fix 1 all nve
run 100
Neighbor list info ...
  update every 1 steps, delay 10 steps, check yes
  max neighbors/atom: 2000, page size: 100000
  master list distance cutoff = 8
  ghost atom cutoff = 8
  binsize = 4, bins = 2 2 2
  1 neighbor lists, perpetual/occasional/extra = 1 0 0
  (1) pair mlip_pair, perpetual
      attributes: half, newton on
      pair build: half/bin/atomonly/newton
      stencil: half/bin/3d/newton
      bin: standard
Per MPI rank memory allocation (min/avg/max) = 3.114 | 3.114 | 3.114 Mbytes
Step Temp E_pair E_mol TotEng Press 
       0            0    -133.6847            0    -133.6847   -27951.813 
     100    143.14916   -134.25873            0   -133.68513   -32570.238 
Loop time of 0.108123 on 1 procs for 100 steps with 32 atoms

Performance: 79.909 ns/day, 0.300 hours/ns, 924.869 timesteps/s
100.0% CPU use with 1 MPI tasks x 1 OpenMP threads

MPI task timing breakdown:
Section |  min time  |  avg time  |  max time  |%varavg| %total
---------------------------------------------------------------
Pair    | 0.10733    | 0.10733    | 0.10733    |   0.0 | 99.27
Neigh   | 0          | 0          | 0          |   0.0 |  0.00
Comm    | 0.00055338 | 0.00055338 | 0.00055338 |   0.0 |  0.51
Output  | 1.8779e-05 | 1.8779e-05 | 1.8779e-05 |   0.0 |  0.02
Modify  | 8.4102e-05 | 8.4102e-05 | 8.4102e-05 |   0.0 |  0.08
Other   |            | 0.0001368  |            |       |  0.13

Nlocal:    32 ave 32 max 32 min
Histogram: 1 0 0 0 0 0 0 0 0 0
Nghost:    832 ave 832 max 832 min
Histogram: 1 0 0 0 0 0 0 0 0 0
Neighs:    2240 ave 2240 max 2240 min
Histogram: 1 0 0 0 0 0 0 0 0 0

Total # of neighbors = 2240
Ave neighs/atom = 70
Neighbor list builds = 0
Dangerous builds = 0

write_dump all custom dump.atom id type x y z modify format line "%d %d %10.15g %10.15g %10.15g"
Total wall time: 0:00:00
