LAMMPS (3 Mar 2020)
OMP_NUM_THREADS environment is not set. Defaulting to 1 thread. (../comm.cpp:94)
  using 1 OpenMP thread(s) per MPI task
dimension 3
units metal
read_data structure.lammps
  orthogonal box = (0 0 0) to (8 8 8)
  1 by 1 by 1 MPI processor grid
  reading atoms ...
  32 atoms
  read_data CPU = 0.000307083 secs

pair_style  mlip_pair
pair_coeff * * pair-60 Ti Al

fix 1 all nve
run 100
Neighbor list info ...
  update every 1 steps, delay 10 steps, check yes
  max neighbors/atom: 2000, page size: 100000
  master list distance cutoff = 14
  ghost atom cutoff = 14
  binsize = 7, bins = 2 2 2
  1 neighbor lists, perpetual/occasional/extra = 1 0 0
  (1) pair mlip_pair, perpetual
      attributes: half, newton on
      pair build: half/bin/atomonly/newton
      stencil: half/bin/3d/newton
      bin: standard
Per MPI rank memory allocation (min/avg/max) = 3.051 | 3.051 | 3.051 Mbytes
Step Temp E_pair E_mol TotEng Press 
       0            0   -135.29823            0   -135.29823    -7129.266 
     100     118.2795    -135.7725            0   -135.29855   -10393.232 
Loop time of 1.17648 on 1 procs for 100 steps with 32 atoms

Performance: 7.344 ns/day, 3.268 hours/ns, 85.000 timesteps/s
99.9% CPU use with 1 MPI tasks x 1 OpenMP threads

MPI task timing breakdown:
Section |  min time  |  avg time  |  max time  |%varavg| %total
---------------------------------------------------------------
Pair    | 1.1748     | 1.1748     | 1.1748     |   0.0 | 99.86
Neigh   | 0          | 0          | 0          |   0.0 |  0.00
Comm    | 0.0014553  | 0.0014553  | 0.0014553  |   0.0 |  0.12
Output  | 1.2875e-05 | 1.2875e-05 | 1.2875e-05 |   0.0 |  0.00
Modify  | 5.6982e-05 | 5.6982e-05 | 5.6982e-05 |   0.0 |  0.00
Other   |            | 0.0001287  |            |       |  0.01

Nlocal:    32 ave 32 max 32 min
Histogram: 1 0 0 0 0 0 0 0 0 0
Nghost:    2835 ave 2835 max 2835 min
Histogram: 1 0 0 0 0 0 0 0 0 0
Neighs:    10974 ave 10974 max 10974 min
Histogram: 1 0 0 0 0 0 0 0 0 0

Total # of neighbors = 10974
Ave neighs/atom = 342.938
Neighbor list builds = 0
Dangerous builds = 0

write_dump all custom dump.atom id type x y z modify format line "%d %d %10.15g %10.15g %10.15g"
Total wall time: 0:00:01
