LAMMPS (29 Oct 2020)
OMP_NUM_THREADS environment is not set. Defaulting to 1 thread. (../comm.cpp:94)
  using 1 OpenMP thread(s) per MPI task
dimension       3
units           metal
read_data       structure_00064_conventional.lammps
Reading data file ...
  orthogonal box = (0.0000000 0.0000000 0.0000000) to (8.0000000 8.0000000 16.000000)
  1 by 1 by 1 MPI processor grid
  reading atoms ...
  64 atoms
  read_data CPU = 0.000 seconds

pair_style      mlip_gtinv
pair_coeff * *  gtinv-197.mlip Ti Al

thermo_style    custom step temp epair emol etotal press vol fmax fnorm

run             0
WARNING: No fixes defined, atoms won't move (../verlet.cpp:54)
Neighbor list info ...
  update every 1 steps, delay 10 steps, check yes
  max neighbors/atom: 2000, page size: 100000
  master list distance cutoff = 10
  ghost atom cutoff = 10
  binsize = 5, bins = 2 2 4
  1 neighbor lists, perpetual/occasional/extra = 1 0 0
  (1) pair mlip_gtinv, perpetual
      attributes: half, newton on
      pair build: half/bin/atomonly/newton
      stencil: half/bin/3d/newton
      bin: standard
Per MPI rank memory allocation (min/avg/max) = 3.167 | 3.167 | 3.167 Mbytes
Step Temp E_pair E_mol TotEng Press Volume Fmax Fnorm 
       0            0   -273.09596            0   -273.09596   -18477.159         1024 2.6952399e-14 9.0217388e-14 
Loop time of 1.01328e-06 on 1 procs for 0 steps with 64 atoms

296.1% CPU use with 1 MPI tasks x 1 OpenMP threads

MPI task timing breakdown:
Section |  min time  |  avg time  |  max time  |%varavg| %total
---------------------------------------------------------------
Pair    | 0          | 0          | 0          |   0.0 |  0.00
Neigh   | 0          | 0          | 0          |   0.0 |  0.00
Comm    | 0          | 0          | 0          |   0.0 |  0.00
Output  | 0          | 0          | 0          |   0.0 |  0.00
Modify  | 0          | 0          | 0          |   0.0 |  0.00
Other   |            | 1.013e-06  |            |       |100.00

Nlocal:        64.0000 ave          64 max          64 min
Histogram: 1 0 0 0 0 0 0 0 0 0
Nghost:        2073.00 ave        2073 max        2073 min
Histogram: 1 0 0 0 0 0 0 0 0 0
Neighs:        7936.00 ave        7936 max        7936 min
Histogram: 1 0 0 0 0 0 0 0 0 0

Total # of neighbors = 7936
Ave neighs/atom = 124.00000
Neighbor list builds = 0
Dangerous builds = 0
Total wall time: 0:00:00
