LAMMPS (3 Mar 2020)
OMP_NUM_THREADS environment is not set. Defaulting to 1 thread. (../comm.cpp:94)
  using 1 OpenMP thread(s) per MPI task
dimension 3
units metal
read_data structure.lammps
  orthogonal box = (0 0 0) to (8 8 8)
  1 by 1 by 1 MPI processor grid
  reading atoms ...
  32 atoms
  read_data CPU = 0.000805542 secs

pair_style  mlip_gtinv
pair_coeff * * gtinv-434.mlip Ti Al

fix 1 all nve
run 100
Neighbor list info ...
  update every 1 steps, delay 10 steps, check yes
  max neighbors/atom: 2000, page size: 100000
  master list distance cutoff = 10
  ghost atom cutoff = 10
  binsize = 5, bins = 2 2 2
  1 neighbor lists, perpetual/occasional/extra = 1 0 0
  (1) pair mlip_gtinv, perpetual
      attributes: half, newton on
      pair build: half/bin/atomonly/newton
      stencil: half/bin/3d/newton
      bin: standard
Per MPI rank memory allocation (min/avg/max) = 3.005 | 3.005 | 3.005 Mbytes
Step Temp E_pair E_mol TotEng Press 
       0            0   -135.30262            0   -135.30262   -6123.5007 
     100    120.76392   -135.78685            0   -135.30295   -9437.0265 
Loop time of 0.953856 on 1 procs for 100 steps with 32 atoms

Performance: 9.058 ns/day, 2.650 hours/ns, 104.838 timesteps/s
99.9% CPU use with 1 MPI tasks x 1 OpenMP threads

MPI task timing breakdown:
Section |  min time  |  avg time  |  max time  |%varavg| %total
---------------------------------------------------------------
Pair    | 0.95265    | 0.95265    | 0.95265    |   0.0 | 99.87
Neigh   | 0          | 0          | 0          |   0.0 |  0.00
Comm    | 0.00085765 | 0.00085765 | 0.00085765 |   0.0 |  0.09
Output  | 4.8239e-05 | 4.8239e-05 | 4.8239e-05 |   0.0 |  0.01
Modify  | 8.9969e-05 | 8.9969e-05 | 8.9969e-05 |   0.0 |  0.01
Other   |            | 0.0002102  |            |       |  0.02

Nlocal:    32 ave 32 max 32 min
Histogram: 1 0 0 0 0 0 0 0 0 0
Nghost:    1357 ave 1357 max 1357 min
Histogram: 1 0 0 0 0 0 0 0 0 0
Neighs:    3968 ave 3968 max 3968 min
Histogram: 1 0 0 0 0 0 0 0 0 0

Total # of neighbors = 3968
Ave neighs/atom = 124
Neighbor list builds = 0
Dangerous builds = 0

write_dump all custom dump.atom id type x y z modify format line "%d %d %10.15g %10.15g %10.15g"
Total wall time: 0:00:00
