Generated by pymatgen.io.lammps.data.LammpsData

64  atoms

 2  atom types

0.000000 11.313708  xlo xhi
0.000000 9.797959  ylo yhi
0.000000 9.237604  zlo zhi
5.656854 5.656854 3.265986  xy xz yz

Masses

1  47.867000
2  26.981539

Atoms

1   1  0.000000 0.000000 0.000000
2   1  2.828427 1.632993 4.618802
3   1  2.828427 4.898979 0.000000
4   1  5.656854 6.531973 4.618802
5   1  5.656854 0.000000 0.000000
6   1  8.485281 1.632993 4.618802
7   1  8.485281 4.898979 0.000000
8   1 11.313708 6.531973 4.618802
9   2  1.414214 0.816497 2.309401
10  2  4.242641 2.449490 6.928203
11  2  4.242641 5.715476 2.309401
12  2  7.071068 7.348469 6.928203
13  2  7.071068 0.816497 2.309401
14  2  9.899495 2.449490 6.928203
15  2  9.899495 5.715476 2.309401
16  2 12.727922 7.348469 6.928203
17  2  1.414214 2.449490 0.000000
18  2  4.242641 4.082483 4.618802
19  2  4.242641 7.348469 0.000000
20  2  7.071068 8.981462 4.618802
21  2  7.071068 2.449490 0.000000
22  2  9.899495 4.082483 4.618802
23  2  9.899495 7.348469 0.000000
24  2 12.727922 8.981462 4.618802
25  2  2.828427 3.265986 2.309401
26  2  5.656854 4.898979 6.928203
27  2  5.656854 8.164966 2.309401
28  2  8.485281 9.797959 6.928203
29  2  8.485281 3.265986 2.309401
30  2 11.313708 4.898979 6.928203
31  2 11.313708 8.164966 2.309401
32  2 14.142136 9.797959 6.928203
33  2  2.828427 0.000000 0.000000
34  2  5.656854 1.632993 4.618802
35  2  5.656854 4.898979 0.000000
36  2  8.485281 6.531973 4.618802
37  2  8.485281 0.000000 0.000000
38  2 11.313708 1.632993 4.618802
39  2 11.313708 4.898979 0.000000
40  2 14.142136 6.531973 4.618802
41  2  4.242641 0.816497 2.309401
42  2  7.071068 2.449490 6.928203
43  2  7.071068 5.715476 2.309401
44  2  9.899495 7.348469 6.928203
45  2  9.899495 0.816497 2.309401
46  2 12.727922 2.449490 6.928203
47  2 12.727922 5.715476 2.309401
48  2 15.556349 7.348469 6.928203
49  2  4.242641 2.449490 0.000000
50  2  7.071068 4.082483 4.618802
51  2  7.071068 7.348469 0.000000
52  2  9.899495 8.981462 4.618802
53  2  9.899495 2.449490 0.000000
54  2 12.727922 4.082483 4.618802
55  2 12.727922 7.348469 0.000000
56  2 15.556349 8.981462 4.618802
57  1  5.656854 3.265986 2.309401
58  1  8.485281 4.898979 6.928203
59  1  8.485281 8.164966 2.309401
60  1 11.313708 9.797959 6.928203
61  1 11.313708 3.265986 2.309401
62  1 14.142136 4.898979 6.928203
63  1 14.142136 8.164966 2.309401
64  1 16.970563 9.797959 6.928203

