Generated by pymatgen.io.lammps.data.LammpsData

64  atoms

 2  atom types

0.000000 8.000000  xlo xhi
0.000000 8.000000  ylo yhi
0.000000 16.000000  zlo zhi

Masses

1  47.867000
2  26.981539

Atoms

1   1 0.000000 0.000000  0.000000
2   1 0.000000 0.000000  4.000000
3   1 0.000000 0.000000  8.000000
4   1 0.000000 0.000000 12.000000
5   1 0.000000 4.000000  0.000000
6   1 0.000000 4.000000  4.000000
7   1 0.000000 4.000000  8.000000
8   1 0.000000 4.000000 12.000000
9   1 4.000000 0.000000  0.000000
10  1 4.000000 0.000000  4.000000
11  1 4.000000 0.000000  8.000000
12  1 4.000000 0.000000 12.000000
13  1 4.000000 4.000000  0.000000
14  1 4.000000 4.000000  4.000000
15  1 4.000000 4.000000  8.000000
16  1 4.000000 4.000000 12.000000
17  2 0.000000 2.000000  2.000000
18  2 0.000000 2.000000  6.000000
19  2 0.000000 2.000000 10.000000
20  2 0.000000 2.000000 14.000000
21  2 0.000000 6.000000  2.000000
22  2 0.000000 6.000000  6.000000
23  2 0.000000 6.000000 10.000000
24  2 0.000000 6.000000 14.000000
25  2 4.000000 2.000000  2.000000
26  2 4.000000 2.000000  6.000000
27  2 4.000000 2.000000 10.000000
28  2 4.000000 2.000000 14.000000
29  2 4.000000 6.000000  2.000000
30  2 4.000000 6.000000  6.000000
31  2 4.000000 6.000000 10.000000
32  2 4.000000 6.000000 14.000000
33  2 2.000000 0.000000  2.000000
34  2 2.000000 0.000000  6.000000
35  2 2.000000 0.000000 10.000000
36  2 2.000000 0.000000 14.000000
37  2 2.000000 4.000000  2.000000
38  2 2.000000 4.000000  6.000000
39  2 2.000000 4.000000 10.000000
40  2 2.000000 4.000000 14.000000
41  2 6.000000 0.000000  2.000000
42  2 6.000000 0.000000  6.000000
43  2 6.000000 0.000000 10.000000
44  2 6.000000 0.000000 14.000000
45  2 6.000000 4.000000  2.000000
46  2 6.000000 4.000000  6.000000
47  2 6.000000 4.000000 10.000000
48  2 6.000000 4.000000 14.000000
49  2 2.000000 2.000000  0.000000
50  2 2.000000 2.000000  4.000000
51  2 2.000000 2.000000  8.000000
52  2 2.000000 2.000000 12.000000
53  2 2.000000 6.000000  0.000000
54  2 2.000000 6.000000  4.000000
55  2 2.000000 6.000000  8.000000
56  2 2.000000 6.000000 12.000000
57  2 6.000000 2.000000  0.000000
58  2 6.000000 2.000000  4.000000
59  2 6.000000 2.000000  8.000000
60  2 6.000000 2.000000 12.000000
61  2 6.000000 6.000000  0.000000
62  2 6.000000 6.000000  4.000000
63  2 6.000000 6.000000  8.000000
64  2 6.000000 6.000000 12.000000

